<?xml version="1.0" encoding="UTF-8"?>

<!-- generated on 2021-10-22 21:43:28 by Eclipse SUMO GUI Version 1.10.0
<configuration xmlns:xsi="http://www.w3.org/2001/XMLSchema-instance" xsi:noNamespaceSchemaLocation="http://sumo.dlr.de/xsd/sumoConfiguration.xsd">

    <input>
        <net-file value="/home/wifi/v2x-fall-2021/sumocfg/uc1.net.xml"/>
        <route-files value="/home/wifi/v2x-fall-2021/sumocfg/uc1.rou.xml"/>
    </input>

    <output>
        <tripinfo-output value="/home/wifi/v2x-fall-2021/sumocfg/maptripinfo.uc1.out.xml"/>
    </output>

    <time>
        <begin value="0"/>
        <end value="100000"/>
        <step-length value="0.1"/>
    </time>

    <processing>
        <time-to-teleport value="-1"/>
    </processing>

    <report>
        <xml-validation value="never"/>
        <xml-validation.routes value="never"/>
        <no-step-log value="true"/>
    </report>

    <traci_server>
        <remote-port value="8813"/>
        <num-clients value="2"/>
    </traci_server>

    <gui_only>
        <gui-settings-file value="/home/wifi/v2x-fall-2021/sumocfg/gui-settings.cfg"/>
        <start value="false"/>
        <delay value="1000"/>
        <tracker-interval value="0.1"/>
    </gui_only>

</configuration>
-->

<tripinfos xmlns:xsi="http://www.w3.org/2001/XMLSchema-instance" xsi:noNamespaceSchemaLocation="http://sumo.dlr.de/xsd/tripinfo_file.xsd">
    <tripinfo id="car3" depart="0.00" departLane="gneE0_1" departPos="5.10" departSpeed="0.00" departDelay="0.00" arrival="15.90" arrivalLane="gneE3_1" arrivalPos="50.00" arrivalSpeed="15.04" duration="15.90" routeLength="195.20" waitingTime="0.00" waitingCount="0" stopTime="0.00" timeLoss="2.84" rerouteNo="0" devices="tripinfo_car3" vType="car" speedFactor="1.08" vaporized=""/>
